NiMo.data (written by ASE) 

4 	 atoms 
1  atom types
0.0      3.4  xlo xhi
0.0      3.4  ylo yhi
0.0      3.4  zlo zhi

Masses

1 95.96


Atoms 

1 1 0.0 0.0 0.0
2 1 1.7 1.7 0.0
3 1 1.7 0.0 1.7
4 1 0.0 1.7 1.7
